   16
Geometry Step: 27
    C      1.37274506      2.21250935      0.00000000      3.81851077
    C      1.16418851      3.51120843      0.00000000      4.17834947
    C      2.39319449      1.38255642      0.00000000      4.17833483
    C      2.37622384      4.23841106      0.00000000      3.82268141
    C      2.57830920      5.64488033      0.00000000      4.08098764
    C      3.62897719      2.06862717      0.00000000      3.82263795
    C      3.66563320      3.53632224      0.00000000      4.01732339
    C      4.94805144      1.54028040      0.00000000      4.08117296
    C      4.94266709      4.27367789      0.00000000      4.01732379
    C      3.66024882      6.26971913      0.00000000      4.08117186
    C      4.97932327      5.74137313      0.00000000      3.82263815
    C      6.02999055      2.16512009      0.00000000      4.08098654
    C      6.23207668      3.57158914      0.00000000      3.82268161
    C      7.44411161      4.29879188      0.00000000      4.17835202
    C      6.21510586      6.42744349      0.00000000      4.17833738
    C      7.23555379      5.59748996      0.00000000      3.81851022
